LAMMPS data file. CGCMM style. generated by VMD/TopoTools v1.1 on Fri Nov 06 05:54:07 PM EST 2009
 108 atoms
 0 bonds
 0 angles
 0 dihedrals
 0 impropers
 1 atom types
 0 bond types
 0 angle types
 0 dihedral types
 0 improper types
 0.000000 17.15800  xlo xhi
 0.000000 17.15800  ylo yhi
 0.000000 17.15800  zlo zhi

 Masses

 1 39.948002 # Ar

 Atoms

1 1 6.671033 6.543313 -4.524306 # Ar
2 1 1.065741 -3.334323 -2.590387 # Ar
3 1 -1.784123 0.632054 4.616800 # Ar
4 1 -7.347697 -5.824059 3.656460 # Ar
5 1 -1.833279 -4.780533 8.266727 # Ar
6 1 2.112538 -4.729559 6.757386 # Ar
7 1 -4.562092 -3.203294 5.552555 # Ar
8 1 5.866639 6.744059 1.864164 # Ar
9 1 5.215274 5.388227 6.192701 # Ar
10 1 -3.452895 -4.971205 1.946297 # Ar
11 1 4.196132 2.178918 -0.624612 # Ar
12 1 -0.405850 7.077576 -2.655150 # Ar
13 1 -4.522977 -1.406356 2.386272 # Ar
14 1 -1.084400 2.415577 8.377916 # Ar
15 1 -8.196531 -1.869283 4.058070 # Ar
16 1 -6.012096 3.185524 0.067233 # Ar
17 1 -1.088901 -1.037446 1.407573 # Ar
18 1 1.540448 -0.491164 3.604177 # Ar
19 1 -3.131614 -6.753716 5.006110 # Ar
20 1 0.249266 -7.884721 7.566037 # Ar
21 1 2.491987 6.876646 3.472700 # Ar
22 1 -8.014412 -6.581058 -6.114518 # Ar
23 1 -4.772702 6.142127 2.875761 # Ar
24 1 6.180236 -4.347463 5.427293 # Ar
25 1 0.436403 -1.366559 7.373335 # Ar
26 1 -0.920906 -3.309615 4.403699 # Ar
27 1 3.311188 -3.618046 3.159271 # Ar
28 1 0.507106 -4.498795 0.933840 # Ar
29 1 -2.736629 -3.185129 -1.727047 # Ar
30 1 5.561911 -7.258725 -4.701104 # Ar
31 1 3.061465 2.749277 6.693255 # Ar
32 1 -1.379432 7.052637 4.645028 # Ar
33 1 7.524153 2.684675 1.609332 # Ar
34 1 -5.877039 1.372724 -3.724114 # Ar
35 1 0.830260 5.330871 -6.076386 # Ar
36 1 2.701339 -1.605610 0.120056 # Ar
37 1 -7.887490 6.250789 0.889332 # Ar
38 1 -8.072053 -0.364180 0.686386 # Ar
39 1 5.251400 -0.338969 2.159178 # Ar
40 1 -3.889897 3.305636 5.664972 # Ar
41 1 -1.947821 2.320297 -5.461053 # Ar
42 1 -5.883562 -3.315247 -7.356253 # Ar
43 1 -5.790778 -7.005733 -0.088639 # Ar
44 1 -4.477286 -0.189604 -0.825454 # Ar
45 1 -3.964466 -1.625437 -4.720421 # Ar
46 1 -1.783442 -4.846525 -4.926375 # Ar
47 1 -0.729972 -8.266180 -5.706121 # Ar
48 1 0.665737 1.871734 0.541605 # Ar
49 1 -4.093856 6.309354 -1.073250 # Ar
50 1 7.736386 1.845265 -1.974622 # Ar
51 1 -6.900887 5.213425 -2.938739 # Ar
52 1 3.776999 2.924480 2.906103 # Ar
53 1 -7.286011 -1.851948 -2.824378 # Ar
54 1 -7.816785 -0.110266 -6.915801 # Ar
55 1 6.429531 5.192173 -1.276072 # Ar
56 1 0.312076 3.637068 4.305766 # Ar
57 1 4.726931 -8.329420 -1.374876 # Ar
58 1 -1.739620 -6.925210 -2.070211 # Ar
59 1 -1.832129 6.220936 -8.407851 # Ar
60 1 5.628985 1.222064 -8.024316 # Ar
61 1 4.366304 -7.179088 2.463702 # Ar
62 1 6.369051 0.021402 -4.677374 # Ar
63 1 -8.245906 -8.404925 -2.580550 # Ar
64 1 6.395071 8.223464 -8.026158 # Ar
65 1 3.173110 6.747033 -3.744381 # Ar
66 1 8.558718 5.643303 4.706807 # Ar
67 1 3.779576 -5.115190 -0.633083 # Ar
68 1 3.820620 -1.202628 6.235314 # Ar
69 1 4.257068 -3.634303 -3.888949 # Ar
70 1 1.923487 5.967026 7.627241 # Ar
71 1 -5.152822 3.331641 -7.977204 # Ar
72 1 -2.112653 2.897408 -1.804919 # Ar
73 1 7.322582 -4.722077 -1.995970 # Ar
74 1 2.318765 1.774429 -6.796250 # Ar
75 1 -5.182398 -5.076158 -3.467262 # Ar
76 1 -3.218552 5.542145 -5.007082 # Ar
77 1 0.088557 -1.417169 -6.207245 # Ar
78 1 -0.608596 -0.264089 -2.018887 # Ar
79 1 8.162320 -7.311683 0.796210 # Ar
80 1 8.403234 3.350280 -5.566631 # Ar
81 1 6.191827 -1.406925 -1.163087 # Ar
82 1 7.233120 -2.059381 7.987023 # Ar
83 1 1.042563 -8.152927 0.049439 # Ar
84 1 3.013103 5.648284 -0.258549 # Ar
85 1 6.886490 -8.159307 4.829061 # Ar
86 1 5.062375 4.864520 -7.358850 # Ar
87 1 -0.545073 5.344638 1.183783 # Ar
88 1 2.692145 -8.285642 -6.697805 # Ar
89 1 2.797813 0.114875 -3.337376 # Ar
90 1 7.622684 -3.176733 -5.530839 # Ar
91 1 1.507448 3.337423 -3.241532 # Ar
92 1 6.673077 1.065462 5.257895 # Ar
93 1 -6.718945 0.487253 6.917994 # Ar
94 1 5.628916 -5.228592 -7.725226 # Ar
95 1 -2.994550 2.621840 1.921082 # Ar
96 1 -6.507473 -3.699638 0.492867 # Ar
97 1 3.702503 -7.946432 6.342950 # Ar
98 1 8.290607 3.392831 7.814471 # Ar
99 1 6.796829 -3.834132 1.416497 # Ar
100 1 2.024973 -6.671332 -3.289382 # Ar
101 1 -7.998393 -5.339475 7.598237 # Ar
102 1 4.864722 3.416461 -3.945263 # Ar
103 1 1.487883 -4.672180 -6.584952 # Ar
104 1 4.089924 -2.008504 -7.522295 # Ar
105 1 -2.491980 8.578797 1.484627 # Ar
106 1 -3.444188 -0.358709 8.464431 # Ar
107 1 1.048561 -7.014623 3.853409 # Ar
108 1 -6.651219 1.493563 3.477448 # Ar

Velocities

1 -1.5643224621482283e-03 4.8497508563925346e-04 -4.3352481732883966e-04
2 4.1676710257651452e-04 2.2858522230176587e-05 -6.1985040462745732e-04
3 -7.5611349562333923e-04 4.0710138209103827e-04 -4.6520198934056357e-04
4 -1.0716463354369357e-03 1.9399472344407333e-03 3.6805207892014988e-05
5 1.8845309488827741e-03 -9.6929654979601939e-04 -5.0590631889323786e-04
6 6.3850936177063688e-04 2.9439961625943489e-03 2.0290627741083355e-04
7 1.5417020528064903e-05 1.7854479210267119e-05 1.0061778727049613e-03
8 -1.4096631765204916e-03 6.6920838746400600e-04 -1.1440332398881235e-03
9 -1.1623287197336312e-03 1.6266211340761735e-03 1.3040008893057014e-03
10 1.3961661508013856e-03 3.5480038145712736e-05 -9.9101224232255817e-04
11 -7.8119282252798756e-04 8.0770620385540233e-04 -1.4741616364769391e-04
12 -8.4465150294226528e-04 -1.9923244287298695e-03 -6.2089699425759077e-04
13 4.8199317804818579e-04 2.6851883010136799e-04 2.8946202010011360e-05
14 -8.2433856370986945e-04 2.8766236402950288e-04 -6.7726146942851230e-04
15 1.0759225321624727e-03 -5.0652068703702471e-04 -8.1558579057040967e-04
16 -4.1654885401277715e-04 -2.1963115969871258e-03 4.7173893044170949e-04
17 3.3822271329348960e-03 -1.1094925187093363e-04 1.7960828583444049e-03
18 -4.5419241078412093e-04 -5.9345998636867009e-05 -5.7258946451372564e-04
19 -1.1899036421980488e-03 9.3983719885128869e-05 -5.8462360685180778e-04
20 3.7172749436126885e-04 1.9340413720264325e-03 1.4034788302775946e-03
21 1.7974246348577072e-04 1.0193612025409288e-03 4.9370272372543282e-04
22 -9.4461498382508897e-04 -1.5026896525989781e-03 9.1479102888999955e-05
23 -1.8939664944843942e-03 5.6369115520127778e-04 2.4325248949145196e-04
24 5.8057892769663175e-04 1.2299831371874594e-04 2.9629659010955246e-04
25 8.3145733665166094e-04 1.6024783547625206e-03 2.2561613876544880e-03
26 -3.3459474408059099e-04 -9.0138124644271826e-04 4.6451973781908732e-05
27 -1.4661492298318566e-03 -9.6700324227027277e-04 -1.2402619350327583e-03
28 2.2294716528019855e-04 -7.1757354452299765e-04 -1.3359945828925550e-03
29 3.5744852428510476e-04 -4.7176712674574758e-04 -1.2299995762011908e-03
30 -7.1013397780573531e-04 2.1818976630239278e-03 3.0517895276767340e-03
31 7.9633427864940574e-04 -3.3213284823899663e-05 -8.8375819004122126e-04
32 -1.0048962733085658e-03 -1.0338986950231507e-03 -1.2128201825351069e-03
33 6.1036336377894929e-04 9.2701621970857817e-04 -1.2537972128693620e-03
34 1.0520429442651071e-03 -8.4866067556637161e-04 -1.3560525458749155e-05
35 2.5814213260471724e-04 -7.5314897639645743e-04 8.0713082892823452e-04
36 -3.6385410005198736e-03 8.8146280046642606e-04 5.6477118870225215e-05
37 9.6333620309687013e-04 1.7133724036878372e-04 -6.2326101449483172e-04
38 1.3552473384443623e-03 6.8479283464214743e-04 1.7273048455913563e-03
39 2.5884589579386447e-03 -1.4321360648116401e-03 -3.0829116871650114e-04
40 -1.9464964022266687e-03 -6.1160752453349304e-04 1.2508357692460391e-03
41 2.0354460092287877e-03 -8.0047183425335712e-04 -7.6779326062273879e-05
42 -8.8078983167544410e-04 2.0527738907615478e-03 -4.8490967626695514e-04
43 -1.6226833552402415e-03 -4.4509205363786440e-04 5.7985161430016720e-04
44 -1.3846623789497004e-03 -8.1591443760356856e-04 3.5239524960511482e-04
45 8.4581719582112696e-05 4.4027379945299169e-04 7.8825448363930943e-04
46 1.9101264956063397e-04 -3.7541323533216431e-05 2.0232815584298586e-04
47 1.0507771398316642e-03 2.1703338837872421e-06 1.8721233841267814e-03
48 -1.1764360038119695e-03 -2.7051268798865438e-03 4.2626857615829489e-04
49 1.4811895380049227e-03 -8.6900359536064796e-04 -1.3508346585503553e-03
50 1.3876291076744002e-03 6.5070110767351664e-04 -6.1537705602631544e-05
51 -1.5265028980997747e-04 3.5305182092379836e-03 -3.5107439080411313e-04
52 1.2593135527188843e-03 -3.4770110188951111e-04 -3.2219440087892302e-03
53 -4.8839641798958239e-04 -1.0781245860584732e-03 -7.6447169214134084e-04
54 2.9537856402441307e-03 3.5708460303038737e-04 4.3965885540392521e-04
55 -9.2354805883572888e-04 -1.3750879594929264e-04 1.7566816252148881e-03
56 -8.4649245109681394e-05 -2.5830032329337755e-03 6.2136732242066585e-04
57 -7.8863228626065347e-04 -4.7987306164718428e-05 -7.6918205615324461e-05
58 -7.5715366119523408e-04 -8.8223969491051666e-04 -1.1130209071318147e-03
59 -1.5829995718074550e-03 -1.0023130948058853e-03 1.0105693656524083e-03
60 -9.7237564644641694e-04 -4.2306183690077959e-03 -1.7993911047256889e-03
61 2.5009355760304557e-03 -6.9762487866167910e-04 1.4240088170272963e-03
62 -2.1973523929318302e-04 2.2092313541290937e-05 8.3472986487536491e-05
63 1.1022471068800079e-03 -3.1173869715215023e-03 2.2862705719842859e-03
64 -1.2765414792041748e-03 8.2954964873239924e-04 8.6393605486046691e-07
65 1.8024567462803108e-03 -3.2357868878445974e-04 7.2049328401194016e-04
66 1.3369574268302883e-03 2.4197150221213766e-04 -2.4078296952019445e-04
67 -6.4367273480117029e-04 9.4544158572617176e-05 1.2224424402153017e-03
68 7.3861349744237207e-04 6.1538146539837915e-04 -1.0659904512438458e-04
69 -1.3869668138548187e-03 -1.5135537737600894e-03 -1.7700632516888342e-03
70 -1.2783209148195544e-03 -6.4363699635212640e-04 -6.3784434948207917e-04
71 -1.1486989458051769e-03 2.2414503838807933e-03 5.7721354683718497e-05
72 1.3168895876064066e-03 1.9570675664972955e-03 4.0936567386207711e-04
73 6.3073775671656379e-04 6.9398368370810696e-04 -2.7072142801711462e-03
74 -3.2393828021454760e-04 1.8032188549262072e-03 -8.7265713577056329e-04
75 2.0422470188389682e-04 -7.7369026089478630e-04 -1.3328071442246694e-03
76 -2.2226907938257076e-05 4.7885157053263603e-04 6.0068136092359822e-05
77 -1.4298413641215028e-03 -1.1674283659453153e-04 -3.7073258095465290e-04
78 -2.0611289910871505e-03 -7.1332431440348544e-04 1.2809266282339321e-04
79 -7.4275381512506605e-04 1.8409280327853588e-03 -1.4613152937356479e-03
80 -1.1017089795515253e-03 9.2440680189215501e-04 4.1040985295765773e-05
81 5.3072557614502406e-04 -1.9182563618355668e-03 6.6929180130627429e-04
82 -1.6469389079891580e-03 -3.3913862865732141e-04 -3.4603537121251295e-04
83 -7.4215102626457323e-04 -9.8513589889560684e-05 8.8892011842225927e-04
84 -3.0986258142986708e-04 2.3322786412505996e-03 1.1214740271337398e-03
85 -2.2588473708594786e-03 -3.7370321664764982e-04 2.6199219861683513e-03
86 1.5543286843928208e-03 3.0860432881096969e-04 -2.3276316538484460e-03
87 1.4014253099048656e-03 1.6989378445509686e-04 1.0862067754042389e-04
88 1.5485169419261718e-03 -2.5482574014883033e-04 1.6549301081433053e-03
89 8.3679284925556360e-04 2.6544605630854541e-03 -3.1978397990891830e-04
90 2.8867805091229137e-04 -9.5105410949532254e-04 -4.1906535931744601e-04
91 1.5677334410636003e-03 3.8398276164589067e-04 5.4230186211901119e-04
92 1.8828375897567346e-03 2.5974363433841984e-04 -5.4853918242744198e-04
93 -7.2191331833469923e-04 -9.3121561995775873e-04 -1.0102462549550035e-03
94 -2.5645967264587824e-04 -3.8300695089345021e-04 7.5308084406414243e-06
95 -6.9678200159030467e-04 1.9053736728726351e-03 -5.5375918909208023e-04
96 1.8765197796989418e-03 2.2251752214693724e-04 -8.5240569555193027e-04
97 6.5009741785571464e-04 1.5502364257396865e-03 -1.5320902037263414e-03
98 1.1552195131152949e-03 5.2576645590408585e-04 -9.7934306024165957e-05
99 -1.4419828777329281e-03 -2.0581943028127967e-03 -6.1455516747372426e-04
100 -1.8081813454125322e-03 2.0392408575730525e-04 5.2891537053608253e-04
101 8.3338854452045131e-04 8.4885016567212471e-05 -1.0314730467739900e-03
102 1.7861843205888382e-03 -1.4959403377944355e-03 5.0308057595438297e-04
103 -6.0451783799718114e-04 -1.9369920772084048e-03 8.3982235283629170e-04
104 8.7324422742439877e-04 1.6025909516322815e-04 -6.4317473328755128e-04
105 -4.5793392919712261e-04 -2.1744186189341037e-04 2.5912834893712798e-03
106 1.5850650475339276e-03 -6.4434145921806031e-06 -5.7440449281686960e-04
107 -2.0204313429923672e-03 6.3428280954377821e-05 2.5115932933766497e-03
108 -7.6107091738481837e-05 6.5742688995404971e-04 -2.9040212591161766e-04
